Automatically generated mesh
    2596
Reciprocal lattice
    0.00000000000000    0.00000000000000    0.00000000000000             1
    0.05555555555556   -0.00000000000000    0.00000000000000             2
   -0.00000000000000   -0.00000000000000   -0.05555555555556             2
    0.11111111111111   -0.00000000000000   -0.00000000000000             2
   -0.00000000000000   -0.00000000000000   -0.11111111111111             2
    0.16666666666666   -0.00000000000000   -0.00000000000000             2
    0.00000000000000    0.00000000000000   -0.16666666666667             2
    0.22222222222222   -0.00000000000000    0.00000000000000             2
    0.00000000000000    0.00000000000000   -0.22222222222222             2
    0.27777777777778   -0.00000000000000   -0.00000000000000             2
   -0.00000000000000   -0.00000000000000   -0.27777777777778             2
    0.33333333333334   -0.00000000000000    0.00000000000000             2
   -0.00000000000000   -0.00000000000000   -0.33333333333334             2
    0.38888888888889   -0.00000000000000    0.00000000000000             2
    0.00000000000000    0.00000000000000   -0.38888888888889             2
    0.44444444444444   -0.00000000000000    0.00000000000000             2
    0.00000000000000    0.00000000000000   -0.44444444444445             2
    0.50000000000000   -0.00000000000000   -0.00000000000000             1
   -0.00000000000000    0.00000000000000    0.49999999999999             1
   -0.00000000000000    0.06250000000000   -0.00000000000000             2
    0.05555555555556    0.06250000000000   -0.00000000000000             2
   -0.00000000000000   -0.06250000000000   -0.05555555555556             2
    0.11111111111111    0.06250000000000    0.00000000000000             2
   -0.00000000000000   -0.06250000000000   -0.11111111111112             2
    0.16666666666666    0.06250000000000    0.00000000000000             2
    0.00000000000000   -0.06250000000000   -0.16666666666667             2
    0.22222222222222    0.06250000000000    0.00000000000000             2
    0.00000000000000   -0.06250000000000   -0.22222222222222             2
    0.27777777777778    0.06250000000000    0.00000000000000             2
   -0.00000000000000   -0.06250000000000   -0.27777777777778             2
    0.33333333333334    0.06250000000000   -0.00000000000000             2
   -0.00000000000000   -0.06250000000000   -0.33333333333334             2
    0.38888888888889    0.06250000000000   -0.00000000000000             2
    0.00000000000000   -0.06250000000000   -0.38888888888889             2
    0.44444444444444    0.06250000000000    0.00000000000000             2
    0.00000000000000   -0.06250000000000   -0.44444444444445             2
    0.50000000000000    0.06250000000000   -0.00000000000001             2
    0.00000000000000   -0.06250000000000    0.50000000000000             2
   -0.44444444444444    0.06250000000000    0.00000000000000             2
   -0.00000000000000   -0.06250000000000    0.44444444444444             2
   -0.38888888888889    0.06250000000000   -0.00000000000000             2
   -0.00000000000000   -0.06250000000000    0.38888888888889             2
   -0.33333333333334    0.06250000000000   -0.00000000000000             2
    0.00000000000000   -0.06250000000000    0.33333333333334             2
   -0.27777777777778    0.06250000000000   -0.00000000000000             2
    0.00000000000000   -0.06250000000000    0.27777777777778             2
   -0.22222222222222    0.06250000000000   -0.00000000000000             2
   -0.00000000000000   -0.06250000000000    0.22222222222222             2
   -0.16666666666666    0.06250000000000    0.00000000000000             2
   -0.00000000000000   -0.06250000000000    0.16666666666666             2
   -0.11111111111111    0.06250000000000    0.00000000000000             2
    0.00000000000000   -0.06250000000000    0.11111111111111             2
   -0.05555555555556    0.06250000000000    0.00000000000000             2
    0.00000000000000   -0.06250000000000    0.05555555555556             2
   -0.00000000000000    0.12500000000000    0.00000000000000             2
    0.05555555555556    0.12500000000000   -0.00000000000000             2
   -0.00000000000000   -0.12500000000000   -0.05555555555556             2
    0.11111111111111    0.12500000000000   -0.00000000000000             2
   -0.00000000000000   -0.12500000000000   -0.11111111111111             2
    0.16666666666666    0.12500000000000   -0.00000000000000             2
    0.00000000000000   -0.12500000000000   -0.16666666666666             2
    0.22222222222222    0.12500000000000    0.00000000000000             2
    0.00000000000000   -0.12500000000000   -0.22222222222222             2
    0.27777777777778    0.12500000000000    0.00000000000000             2
   -0.00000000000000   -0.12500000000000   -0.27777777777778             2
    0.33333333333334    0.12500000000000    0.00000000000000             2
   -0.00000000000000   -0.12500000000000   -0.33333333333334             2
    0.38888888888889    0.12500000000000    0.00000000000000             2
    0.00000000000000   -0.12500000000000   -0.38888888888889             2
    0.44444444444444    0.12500000000000   -0.00000000000000             2
    0.00000000000000   -0.12500000000000   -0.44444444444444             2
    0.50000000000000    0.12500000000000   -0.00000000000000             2
   -0.00000000000000   -0.12500000000000    0.50000000000001             2
   -0.44444444444444    0.12500000000000   -0.00000000000000             2
   -0.00000000000000   -0.12500000000000    0.44444444444445             2
   -0.38888888888889    0.12500000000000    0.00000000000000             2
   -0.00000000000000   -0.12500000000000    0.38888888888889             2
   -0.33333333333334    0.12500000000000    0.00000000000000             2
    0.00000000000000   -0.12500000000000    0.33333333333333             2
   -0.27777777777778    0.12500000000000   -0.00000000000000             2
    0.00000000000000   -0.12500000000000    0.27777777777778             2
   -0.22222222222222    0.12500000000000   -0.00000000000000             2
   -0.00000000000000   -0.12500000000000    0.22222222222222             2
   -0.16666666666666    0.12500000000000   -0.00000000000000             2
   -0.00000000000000   -0.12500000000000    0.16666666666667             2
   -0.11111111111111    0.12500000000000    0.00000000000001             2
    0.00000000000000   -0.12500000000000    0.11111111111112             2
   -0.05555555555556    0.12500000000000    0.00000000000000             2
    0.00000000000000   -0.12500000000000    0.05555555555555             2
    0.00000000000000    0.18750000000000   -0.00000000000000             2
    0.05555555555556    0.18750000000000    0.00000000000000             2
   -0.00000000000000   -0.18750000000000   -0.05555555555556             2
    0.11111111111111    0.18750000000000   -0.00000000000000             2
   -0.00000000000000   -0.18750000000000   -0.11111111111112             2
    0.16666666666666    0.18750000000000   -0.00000000000000             2
    0.00000000000000   -0.18750000000000   -0.16666666666667             2
    0.22222222222222    0.18750000000000    0.00000000000000             2
    0.00000000000000   -0.18750000000000   -0.22222222222222             2
    0.27777777777778    0.18750000000000   -0.00000000000000             2
   -0.00000000000000   -0.18750000000000   -0.27777777777778             2
    0.33333333333334    0.18750000000000    0.00000000000000             2
   -0.00000000000000   -0.18750000000000   -0.33333333333334             2
    0.38888888888889    0.18750000000000    0.00000000000000             2
    0.00000000000000   -0.18750000000000   -0.38888888888889             2
    0.44444444444444    0.18750000000000    0.00000000000000             2
    0.00000000000000   -0.18750000000000   -0.44444444444445             2
    0.50000000000000    0.18750000000000   -0.00000000000000             2
   -0.00000000000000   -0.18750000000000    0.50000000000000             2
   -0.44444444444444    0.18750000000000    0.00000000000000             2
   -0.00000000000000   -0.18750000000000    0.44444444444444             2
   -0.38888888888889    0.18750000000000   -0.00000000000000             2
   -0.00000000000000   -0.18750000000000    0.38888888888889             2
   -0.33333333333334    0.18750000000000   -0.00000000000000             2
    0.00000000000000   -0.18750000000000    0.33333333333334             2
   -0.27777777777778    0.18750000000000    0.00000000000000             2
    0.00000000000000   -0.18750000000000    0.27777777777778             2
   -0.22222222222222    0.18750000000000   -0.00000000000000             2
   -0.00000000000000   -0.18750000000000    0.22222222222222             2
   -0.16666666666666    0.18750000000000   -0.00000000000000             2
   -0.00000000000000   -0.18750000000000    0.16666666666666             2
   -0.11111111111111    0.18750000000000    0.00000000000000             2
    0.00000000000000   -0.18750000000000    0.11111111111111             2
   -0.05555555555556    0.18750000000000   -0.00000000000000             2
    0.00000000000000   -0.18750000000000    0.05555555555556             2
   -0.00000000000000    0.25000000000000   -0.00000000000000             2
    0.05555555555556    0.25000000000000   -0.00000000000000             2
   -0.00000000000000   -0.25000000000000   -0.05555555555556             2
    0.11111111111111    0.25000000000000   -0.00000000000000             2
   -0.00000000000000   -0.25000000000000   -0.11111111111112             2
    0.16666666666666    0.25000000000000    0.00000000000000             2
    0.00000000000000   -0.25000000000000   -0.16666666666667             2
    0.22222222222222    0.25000000000000   -0.00000000000000             2
    0.00000000000000   -0.25000000000000   -0.22222222222222             2
    0.27777777777778    0.25000000000000    0.00000000000000             2
   -0.00000000000000   -0.25000000000000   -0.27777777777778             2
    0.33333333333334    0.25000000000000   -0.00000000000000             2
   -0.00000000000000   -0.25000000000000   -0.33333333333334             2
    0.38888888888889    0.25000000000000   -0.00000000000000             2
    0.00000000000000   -0.25000000000000   -0.38888888888889             2
    0.44444444444444    0.25000000000000    0.00000000000000             2
    0.00000000000000   -0.25000000000000   -0.44444444444444             2
    0.50000000000000    0.25000000000000    0.00000000000000             2
   -0.00000000000000   -0.25000000000000    0.50000000000000             2
   -0.44444444444444    0.25000000000000    0.00000000000000             2
   -0.00000000000000   -0.25000000000000    0.44444444444444             2
   -0.38888888888889    0.25000000000000    0.00000000000000             2
   -0.00000000000000   -0.25000000000000    0.38888888888889             2
   -0.33333333333334    0.25000000000000   -0.00000000000000             2
    0.00000000000000   -0.25000000000000    0.33333333333334             2
   -0.27777777777778    0.25000000000000   -0.00000000000000             2
    0.00000000000000   -0.25000000000000    0.27777777777778             2
   -0.22222222222222    0.25000000000000   -0.00000000000000             2
    0.00000000000000   -0.25000000000000    0.22222222222222             2
   -0.16666666666666    0.25000000000000   -0.00000000000001             2
   -0.00000000000000   -0.25000000000000    0.16666666666666             2
   -0.11111111111111    0.25000000000000    0.00000000000000             2
    0.00000000000000   -0.25000000000000    0.11111111111111             2
   -0.05555555555556    0.25000000000000    0.00000000000000             2
    0.00000000000000   -0.25000000000000    0.05555555555556             2
   -0.00000000000000    0.31250000000000    0.00000000000000             2
    0.05555555555556    0.31250000000000   -0.00000000000000             2
   -0.00000000000000   -0.31250000000000   -0.05555555555556             2
    0.11111111111111    0.31250000000000   -0.00000000000000             2
   -0.00000000000000   -0.31250000000000   -0.11111111111111             2
    0.16666666666666    0.31250000000000   -0.00000000000000             2
    0.00000000000000   -0.31250000000000   -0.16666666666666             2
    0.22222222222222    0.31250000000000   -0.00000000000000             2
    0.00000000000000   -0.31250000000000   -0.22222222222223             2
    0.27777777777778    0.31250000000000    0.00000000000000             2
    0.00000000000000   -0.31250000000000   -0.27777777777778             2
    0.33333333333334    0.31250000000000    0.00000000000000             2
   -0.00000000000000   -0.31250000000000   -0.33333333333334             2
    0.38888888888889    0.31250000000000    0.00000000000000             2
    0.00000000000000   -0.31250000000000   -0.38888888888888             2
    0.44444444444444    0.31250000000000   -0.00000000000000             2
    0.00000000000000   -0.31250000000000   -0.44444444444444             2
    0.50000000000000    0.31250000000000   -0.00000000000000             2
   -0.00000000000000   -0.31250000000000    0.50000000000000             2
   -0.44444444444444    0.31250000000000   -0.00000000000000             2
   -0.00000000000000   -0.31250000000000    0.44444444444445             2
   -0.38888888888889    0.31250000000000    0.00000000000000             2
   -0.00000000000000   -0.31250000000000    0.38888888888888             2
   -0.33333333333334    0.31250000000000    0.00000000000000             2
    0.00000000000000   -0.31250000000000    0.33333333333333             2
   -0.27777777777778    0.31250000000000   -0.00000000000000             2
    0.00000000000000   -0.31250000000000    0.27777777777778             2
   -0.22222222222222    0.31250000000000   -0.00000000000000             2
    0.00000000000000   -0.31250000000000    0.22222222222222             2
   -0.16666666666666    0.31250000000000   -0.00000000000000             2
   -0.00000000000000   -0.31250000000000    0.16666666666667             2
   -0.11111111111111    0.31250000000000    0.00000000000001             2
    0.00000000000000   -0.31250000000000    0.11111111111112             2
   -0.05555555555556    0.31250000000000    0.00000000000000             2
    0.00000000000000   -0.31250000000000    0.05555555555555             2
    0.00000000000000    0.37500000000000   -0.00000000000000             2
    0.05555555555556    0.37500000000000    0.00000000000000             2
   -0.00000000000000   -0.37500000000000   -0.05555555555556             2
    0.11111111111111    0.37500000000000   -0.00000000000000             2
   -0.00000000000000   -0.37500000000000   -0.11111111111112             2
    0.16666666666666    0.37500000000000   -0.00000000000000             2
    0.00000000000000   -0.37500000000000   -0.16666666666667             2
    0.22222222222222    0.37500000000000   -0.00000000000000             2
    0.00000000000000   -0.37500000000000   -0.22222222222222             2
    0.27777777777778    0.37500000000000    0.00000000000001             2
    0.00000000000000   -0.37500000000000   -0.27777777777778             2
    0.33333333333334    0.37500000000000    0.00000000000000             2
   -0.00000000000000   -0.37500000000000   -0.33333333333334             2
    0.38888888888889    0.37500000000000    0.00000000000000             2
    0.00000000000000   -0.37500000000000   -0.38888888888889             2
    0.44444444444444    0.37500000000000    0.00000000000000             2
    0.00000000000000   -0.37500000000000   -0.44444444444444             2
    0.50000000000000    0.37500000000000   -0.00000000000000             2
   -0.00000000000000   -0.37500000000000    0.50000000000000             2
   -0.44444444444444    0.37500000000000    0.00000000000000             2
   -0.00000000000000   -0.37500000000000    0.44444444444444             2
   -0.38888888888889    0.37500000000000   -0.00000000000000             2
   -0.00000000000000   -0.37500000000000    0.38888888888889             2
   -0.33333333333334    0.37500000000000   -0.00000000000000             2
    0.00000000000000   -0.37500000000000    0.33333333333334             2
   -0.27777777777778    0.37500000000000    0.00000000000000             2
    0.00000000000000   -0.37500000000000    0.27777777777778             2
   -0.22222222222222    0.37500000000000   -0.00000000000000             2
   -0.00000000000000   -0.37500000000000    0.22222222222222             2
   -0.16666666666666    0.37500000000000   -0.00000000000000             2
   -0.00000000000000   -0.37500000000000    0.16666666666666             2
   -0.11111111111111    0.37500000000000    0.00000000000000             2
    0.00000000000000   -0.37500000000000    0.11111111111111             2
   -0.05555555555556    0.37500000000000    0.00000000000001             2
    0.00000000000000   -0.37500000000000    0.05555555555556             2
   -0.00000000000000    0.43750000000000    0.00000000000000             2
    0.05555555555556    0.43750000000000   -0.00000000000000             2
   -0.00000000000000   -0.43750000000000   -0.05555555555556             2
    0.11111111111111    0.43750000000000   -0.00000000000000             2
   -0.00000000000000   -0.43750000000000   -0.11111111111112             2
    0.16666666666666    0.43750000000000    0.00000000000000             2
    0.00000000000000   -0.43750000000000   -0.16666666666667             2
    0.22222222222222    0.43750000000000   -0.00000000000000             2
    0.00000000000000   -0.43750000000000   -0.22222222222222             2
    0.27777777777778    0.43750000000000    0.00000000000000             2
    0.00000000000000   -0.43750000000000   -0.27777777777779             2
    0.33333333333334    0.43750000000000    0.00000000000000             2
   -0.00000000000000   -0.43750000000000   -0.33333333333333             2
    0.38888888888889    0.43750000000000   -0.00000000000000             2
    0.00000000000000   -0.43750000000000   -0.38888888888888             2
    0.44444444444444    0.43750000000000    0.00000000000000             2
    0.00000000000000   -0.43750000000000   -0.44444444444444             2
    0.50000000000000    0.43750000000000    0.00000000000000             2
    0.00000000000000   -0.43750000000000    0.50000000000000             2
   -0.44444444444444    0.43750000000000    0.00000000000000             2
   -0.00000000000000   -0.43750000000000    0.44444444444444             2
   -0.38888888888889    0.43750000000000    0.00000000000000             2
   -0.00000000000000   -0.43750000000000    0.38888888888889             2
   -0.33333333333334    0.43750000000000    0.00000000000000             2
    0.00000000000000   -0.43750000000000    0.33333333333334             2
   -0.27777777777778    0.43750000000000   -0.00000000000000             2
    0.00000000000000   -0.43750000000000    0.27777777777778             2
   -0.22222222222222    0.43750000000000   -0.00000000000000             2
   -0.00000000000000   -0.43750000000000    0.22222222222222             2
   -0.16666666666666    0.43750000000000   -0.00000000000001             2
   -0.00000000000000   -0.43750000000000    0.16666666666666             2
   -0.11111111111111    0.43750000000000   -0.00000000000000             2
    0.00000000000000   -0.43750000000000    0.11111111111111             2
   -0.05555555555556    0.43750000000000    0.00000000000000             2
    0.00000000000000   -0.43750000000000    0.05555555555556             2
   -0.00000000000000    0.50000000000000    0.00000000000000             1
    0.05555555555556    0.50000000000000    0.00000000000000             2
   -0.00000000000000    0.50000000000000   -0.05555555555556             2
    0.11111111111111    0.50000000000000   -0.00000000000000             2
   -0.00000000000000    0.50000000000000   -0.11111111111111             2
    0.16666666666666    0.50000000000000   -0.00000000000000             2
    0.00000000000000    0.50000000000000   -0.16666666666666             2
    0.22222222222222    0.50000000000000   -0.00000000000000             2
    0.00000000000000    0.50000000000000   -0.22222222222223             2
    0.27777777777778    0.50000000000000   -0.00000000000001             2
   -0.00000000000000    0.50000000000000   -0.27777777777778             2
    0.33333333333334    0.50000000000000    0.00000000000000             2
   -0.00000000000000    0.50000000000000   -0.33333333333333             2
    0.38888888888889    0.50000000000000    0.00000000000000             2
    0.00000000000000    0.50000000000000   -0.38888888888888             2
    0.44444444444444    0.50000000000000   -0.00000000000000             2
    0.00000000000000    0.50000000000000   -0.44444444444444             2
    0.50000000000000    0.50000000000000   -0.00000000000000             1
   -0.00000000000000    0.50000000000000    0.50000000000000             1
    0.05555555555556    0.00000000000000    0.05555555555556             2
    0.11111111111111   -0.00000000000000    0.05555555555555             2
   -0.05555555555556    0.00000000000000   -0.11111111111111             2
    0.16666666666666   -0.00000000000000    0.05555555555555             2
   -0.05555555555556    0.00000000000000   -0.16666666666666             2
    0.22222222222222    0.00000000000000    0.05555555555556             2
   -0.05555555555556    0.00000000000000   -0.22222222222222             2
    0.27777777777778   -0.00000000000000    0.05555555555556             2
   -0.05555555555556   -0.00000000000000   -0.27777777777778             2
    0.33333333333334   -0.00000000000000    0.05555555555556             2
   -0.05555555555556    0.00000000000000   -0.33333333333334             2
    0.38888888888889   -0.00000000000000    0.05555555555556             2
   -0.05555555555556    0.00000000000000   -0.38888888888889             2
    0.44444444444444   -0.00000000000000    0.05555555555556             2
   -0.05555555555556    0.00000000000000   -0.44444444444444             2
    0.50000000000000   -0.00000000000000    0.05555555555555             2
   -0.05555555555556    0.00000000000000    0.50000000000000             2
   -0.44444444444444    0.00000000000000    0.05555555555556             2
   -0.05555555555556   -0.00000000000000    0.44444444444444             2
   -0.38888888888889    0.00000000000000    0.05555555555555             2
   -0.05555555555556   -0.00000000000000    0.38888888888889             2
   -0.33333333333334    0.00000000000000    0.05555555555556             2
   -0.05555555555556    0.00000000000000    0.33333333333334             2
   -0.27777777777778    0.00000000000000    0.05555555555556             2
   -0.05555555555556    0.00000000000000    0.27777777777778             2
   -0.22222222222222    0.00000000000000    0.05555555555555             2
   -0.05555555555556    0.00000000000000    0.22222222222222             2
   -0.16666666666666    0.00000000000000    0.05555555555555             2
   -0.05555555555556    0.00000000000000    0.16666666666667             2
   -0.11111111111111    0.00000000000000    0.05555555555556             2
   -0.05555555555556    0.00000000000000    0.11111111111112             2
   -0.05555555555556    0.00000000000000    0.05555555555556             2
    0.05555555555556    0.06250000000000    0.05555555555555             2
    0.11111111111111    0.06250000000000    0.05555555555556             2
   -0.05555555555556   -0.06250000000000   -0.11111111111111             2
    0.16666666666666    0.06250000000000    0.05555555555556             2
   -0.05555555555556   -0.06250000000000   -0.16666666666667             2
    0.22222222222222    0.06250000000000    0.05555555555556             2
   -0.05555555555556   -0.06250000000000   -0.22222222222222             2
    0.27777777777778    0.06250000000000    0.05555555555556             2
   -0.05555555555556   -0.06250000000000   -0.27777777777778             2
    0.33333333333334    0.06250000000000    0.05555555555556             2
   -0.05555555555556   -0.06250000000000   -0.33333333333334             2
    0.38888888888889    0.06250000000000    0.05555555555556             2
   -0.05555555555556   -0.06250000000000   -0.38888888888889             2
    0.44444444444444    0.06250000000000    0.05555555555556             2
   -0.05555555555556   -0.06250000000000   -0.44444444444445             2
    0.50000000000000    0.06250000000000    0.05555555555556             2
   -0.05555555555556   -0.06250000000000    0.50000000000000             2
   -0.44444444444444    0.06250000000000    0.05555555555556             2
   -0.05555555555556   -0.06250000000000    0.44444444444444             2
   -0.38888888888889    0.06250000000000    0.05555555555556             2
   -0.05555555555556   -0.06250000000000    0.38888888888889             2
   -0.33333333333334    0.06250000000000    0.05555555555556             2
   -0.05555555555556   -0.06250000000000    0.33333333333334             2
   -0.27777777777778    0.06250000000000    0.05555555555555             2
   -0.05555555555556   -0.06250000000000    0.27777777777778             2
   -0.22222222222222    0.06250000000000    0.05555555555556             2
   -0.05555555555556   -0.06250000000000    0.22222222222223             2
   -0.16666666666666    0.06250000000000    0.05555555555555             2
   -0.05555555555556   -0.06250000000000    0.16666666666667             2
   -0.11111111111111    0.06250000000000    0.05555555555556             2
   -0.05555555555556   -0.06250000000000    0.11111111111111             2
   -0.05555555555556    0.06250000000000    0.05555555555556             2
   -0.05555555555556   -0.06250000000000    0.05555555555556             2
    0.05555555555556    0.12500000000000    0.05555555555556             2
    0.11111111111111    0.12500000000000    0.05555555555555             2
   -0.05555555555556   -0.12500000000000   -0.11111111111112             2
    0.16666666666666    0.12500000000000    0.05555555555556             2
   -0.05555555555556   -0.12500000000000   -0.16666666666667             2
    0.22222222222222    0.12500000000000    0.05555555555556             2
   -0.05555555555556   -0.12500000000000   -0.22222222222222             2
    0.27777777777778    0.12500000000000    0.05555555555556             2
   -0.05555555555556   -0.12500000000000   -0.27777777777778             2
    0.33333333333334    0.12500000000000    0.05555555555556             2
   -0.05555555555556   -0.12500000000000   -0.33333333333334             2
    0.38888888888889    0.12500000000000    0.05555555555556             2
   -0.05555555555556   -0.12500000000000   -0.38888888888889             2
    0.44444444444444    0.12500000000000    0.05555555555555             2
   -0.05555555555556   -0.12500000000000   -0.44444444444445             2
    0.50000000000000    0.12500000000000    0.05555555555556             2
   -0.05555555555556   -0.12500000000000    0.50000000000000             2
   -0.44444444444444    0.12500000000000    0.05555555555556             2
   -0.05555555555556   -0.12500000000000    0.44444444444445             2
   -0.38888888888889    0.12500000000000    0.05555555555556             2
   -0.05555555555556   -0.12500000000000    0.38888888888889             2
   -0.33333333333334    0.12500000000000    0.05555555555556             2
   -0.05555555555556   -0.12500000000000    0.33333333333334             2
   -0.27777777777778    0.12500000000000    0.05555555555556             2
   -0.05555555555556   -0.12500000000000    0.27777777777778             2
   -0.22222222222222    0.12500000000000    0.05555555555555             2
   -0.05555555555556   -0.12500000000000    0.22222222222222             2
   -0.16666666666666    0.12500000000000    0.05555555555555             2
   -0.05555555555556   -0.12500000000000    0.16666666666666             2
   -0.11111111111111    0.12500000000000    0.05555555555556             2
   -0.05555555555556   -0.12500000000000    0.11111111111111             2
   -0.05555555555556    0.12500000000000    0.05555555555556             2
   -0.05555555555556   -0.12500000000000    0.05555555555556             2
    0.05555555555556    0.18750000000000    0.05555555555556             2
    0.11111111111111    0.18750000000000    0.05555555555556             2
   -0.05555555555556   -0.18750000000000   -0.11111111111111             2
    0.16666666666666    0.18750000000000    0.05555555555555             2
   -0.05555555555556   -0.18750000000000   -0.16666666666666             2
    0.22222222222222    0.18750000000000    0.05555555555555             2
   -0.05555555555556   -0.18750000000000   -0.22222222222222             2
    0.27777777777778    0.18750000000000    0.05555555555556             2
   -0.05555555555556   -0.18750000000000   -0.27777777777778             2
    0.33333333333334    0.18750000000000    0.05555555555556             2
   -0.05555555555556   -0.18750000000000   -0.33333333333334             2
    0.38888888888889    0.18750000000000    0.05555555555556             2
   -0.05555555555556   -0.18750000000000   -0.38888888888889             2
    0.44444444444444    0.18750000000000    0.05555555555556             2
   -0.05555555555556   -0.18750000000000   -0.44444444444444             2
    0.50000000000000    0.18750000000000    0.05555555555555             2
   -0.05555555555556   -0.18750000000000    0.50000000000000             2
   -0.44444444444444    0.18750000000000    0.05555555555556             2