       N       E                     dE             d eps       ncg     rms          ort
DAV:   1     0.109732086371E+04    0.10973E+04   -0.50410E+04 18250   0.208E+03
DAV:   2     0.378847301681E+01   -0.10935E+04   -0.10562E+04 18250   0.593E+02
DAV:   3    -0.135524643391E+03   -0.13931E+03   -0.13461E+03 18250   0.192E+02
DAV:   4    -0.142055658096E+03   -0.65310E+01   -0.64597E+01 18250   0.413E+01
DAV:   5    -0.142270316893E+03   -0.21466E+00   -0.21080E+00 18250   0.695E+00
SDA:   6    -0.118687864551E+03    0.23582E+02   -0.21080E+00 18250   0.685E+01 0.000E+00
CGA:   7    -0.119909500962E+03   -0.12216E+01   -0.12225E+01 18250   0.110E+01 0.172E-01
CGA:   8    -0.120177796220E+03   -0.26830E+00   -0.26796E+00 18250   0.518E+00 0.627E-02
CGA:   9    -0.120305466522E+03   -0.12767E+00   -0.12760E+00 18250   0.192E+00 0.125E-02
CGA:  10    -0.120375976577E+03   -0.70510E-01   -0.69825E-01 18250   0.741E-01 0.400E-02
CGA:  11    -0.120402677734E+03   -0.26701E-01   -0.26751E-01 18250   0.429E-01-0.474E-03
CGA:  12    -0.120414745567E+03   -0.12068E-01   -0.12109E-01 18250   0.163E-01-0.661E-03
CGA:  13    -0.120419387654E+03   -0.46421E-02   -0.46332E-02 18250   0.576E-02 0.117E-03
CGA:  14    -0.120421383734E+03   -0.19961E-02   -0.20142E-02 18250   0.248E-02-0.152E-03
CGA:  15    -0.120422311692E+03   -0.92796E-03   -0.94903E-03 18250   0.114E-02-0.131E-03
CGA:  16    -0.120422829542E+03   -0.51785E-03   -0.61699E-03 18250   0.855E-03-0.298E-03
CGA:  17    -0.120423105597E+03   -0.27605E-03   -0.33638E-03 18250   0.655E-03-0.214E-03
CGA:  18    -0.120423221629E+03   -0.11603E-03   -0.11645E-03 18250   0.302E-03 0.139E-04
CGA:  19    -0.120423326016E+03   -0.10439E-03   -0.10155E-03 18250   0.174E-03 0.468E-04
CGA:  20    -0.120423402146E+03   -0.76130E-04   -0.74852E-04 18250   0.191E-03 0.127E-04
CGA:  21    -0.120423466403E+03   -0.64257E-04   -0.63969E-04 18250   0.904E-04 0.804E-05
CGA:  22    -0.120423498477E+03   -0.32074E-04   -0.31735E-04 18250   0.472E-04 0.591E-05
CGA:  23    -0.120423510273E+03   -0.11795E-04   -0.11977E-04 18250   0.256E-04 0.429E-05
CGA:  24    -0.120423518164E+03   -0.78916E-05   -0.78629E-05 18250   0.157E-04 0.861E-05
   1 F= -.12042352E+03 E0= -.12042352E+03  d E =-.120424E+03  mag=     0.0000
