       N       E                     dE             d eps       ncg     rms          ort
DAV:   1     0.538153482897E+03    0.53815E+03   -0.29260E+04 30870   0.193E+03
DAV:   2    -0.246396609329E+02   -0.56279E+03   -0.53237E+03 30870   0.525E+02
DAV:   3    -0.769771876329E+02   -0.52338E+02   -0.49665E+02 30870   0.156E+02
DAV:   4    -0.784060094559E+02   -0.14288E+01   -0.14093E+01 30870   0.264E+01
DAV:   5    -0.784666966682E+02   -0.60687E-01   -0.60402E-01 30870   0.427E+00
SDA:   6    -0.633800988046E+02    0.15087E+02   -0.60402E-01 30870   0.288E+01 0.000E+00
CGA:   7    -0.638560975993E+02   -0.47600E+00   -0.47674E+00 30870   0.392E+00 0.140E-01
CGA:   8    -0.639272543888E+02   -0.71157E-01   -0.71197E-01 30870   0.973E-01 0.236E-02
CGA:   9    -0.639491786008E+02   -0.21924E-01   -0.21923E-01 30870   0.170E-01 0.743E-04
CGA:  10    -0.639543425789E+02   -0.51640E-02   -0.52004E-02 30870   0.402E-02-0.342E-03
CGA:  11    -0.639555342899E+02   -0.11917E-02   -0.12070E-02 30870   0.222E-02-0.150E-03
CGA:  12    -0.639562866867E+02   -0.75240E-03   -0.76057E-03 30870   0.132E-02-0.555E-04
CGA:  13    -0.639567060013E+02   -0.41931E-03   -0.41559E-03 30870   0.627E-03 0.345E-04
CGA:  14    -0.639568743337E+02   -0.16833E-03   -0.16717E-03 30870   0.298E-03 0.308E-04
CGA:  15    -0.639569476382E+02   -0.73304E-04   -0.73145E-04 30870   0.179E-03 0.153E-04
CGA:  16    -0.639570015068E+02   -0.53869E-04   -0.53359E-04 30870   0.104E-03 0.870E-05
CGA:  17    -0.639570519283E+02   -0.50422E-04   -0.48528E-04 30870   0.707E-04 0.875E-05
CGA:  18    -0.639570821131E+02   -0.30185E-04   -0.27586E-04 30870   0.469E-04 0.214E-04
CGA:  19    -0.639570997968E+02   -0.17684E-04   -0.17052E-04 30870   0.354E-04 0.182E-04
CGA:  20    -0.639571144963E+02   -0.14700E-04   -0.14113E-04 30870   0.282E-04 0.143E-04
CGA:  21    -0.639571350013E+02   -0.20505E-04   -0.18339E-04 30870   0.314E-04 0.101E-04
CGA:  22    -0.639571600254E+02   -0.25024E-04   -0.25258E-04 30870   0.567E-04-0.643E-06
CGA:  23    -0.639571734135E+02   -0.13388E-04   -0.13304E-04 30870   0.448E-04-0.211E-05
CGA:  24    -0.639571874531E+02   -0.14040E-04   -0.14157E-04 30870   0.251E-04-0.209E-05
CGA:  25    -0.639571943258E+02   -0.68727E-05   -0.68924E-05 30870   0.245E-04-0.169E-05
   1 F= -.63957194E+02 E0= -.63956758E+02  d E =-.639572E+02  mag=     4.0000
       N       E                     dE             d eps       ncg     rms          ort
SDA:   1    -0.639560539140E+02    0.11335E-02    0.00000E+00 30870   0.393E-02 0.000E+00
CGA:   2    -0.639568017684E+02   -0.74785E-03   -0.75761E-03 30870   0.131E-02 0.118E-03
CGA:   3    -0.639570641293E+02   -0.26236E-03   -0.26205E-03 30870   0.494E-03-0.443E-05
CGA:   4    -0.639571689556E+02   -0.10483E-03   -0.10196E-03 30870   0.970E-04-0.477E-04
CGA:   5    -0.639571861567E+02   -0.17201E-04   -0.17192E-04 30870   0.303E-04-0.152E-06
CGA:   6    -0.639571905694E+02   -0.44128E-05   -0.50820E-05 30870   0.838E-05 0.719E-05
   2 F= -.63957191E+02 E0= -.63956751E+02  d E =0.375633E-05  mag=     4.0000
