       N       E                     dE             d eps       ncg     rms          ort
DAV:   1     0.493616652279E+03    0.49362E+03   -0.24438E+04 26754   0.196E+03
DAV:   2    -0.187682769374E+01   -0.49549E+03   -0.48602E+03 26754   0.537E+02
DAV:   3    -0.828491343549E+02   -0.80972E+02   -0.78370E+02 26754   0.171E+02
DAV:   4    -0.863401245370E+02   -0.34910E+01   -0.34716E+01 26754   0.417E+01
DAV:   5    -0.864538872138E+02   -0.11376E+00   -0.11360E+00 26754   0.733E+00
SDA:   6    -0.729599533110E+02    0.13494E+02   -0.11360E+00 26754   0.243E+01 0.000E+00
CGA:   7    -0.733739255687E+02   -0.41397E+00   -0.41493E+00 26754   0.207E+00 0.224E-01
CGA:   8    -0.734287715383E+02   -0.54846E-01   -0.54827E-01 26754   0.426E-01-0.175E-03
CGA:   9    -0.734405365185E+02   -0.11765E-01   -0.12027E-01 26754   0.108E-01-0.325E-02
CGA:  10    -0.734430892025E+02   -0.25527E-02   -0.25747E-02 26754   0.248E-02-0.426E-03
CGA:  11    -0.734438794345E+02   -0.79023E-03   -0.77463E-03 26754   0.959E-03 0.132E-03
CGA:  12    -0.734442966666E+02   -0.41723E-03   -0.52356E-03 26754   0.781E-03-0.349E-03
CGA:  13    -0.734444375104E+02   -0.14084E-03   -0.15041E-03 26754   0.321E-03-0.131E-03
CGA:  14    -0.734445104857E+02   -0.72975E-04   -0.11134E-03 26754   0.259E-03-0.209E-03
CGA:  15    -0.734445657184E+02   -0.55233E-04   -0.56027E-04 26754   0.438E-04 0.302E-04
CGA:  16    -0.734445816706E+02   -0.15952E-04   -0.15591E-04 26754   0.243E-04 0.456E-05
CGA:  17    -0.734445845207E+02   -0.28501E-05   -0.42831E-05 26754   0.117E-04 0.169E-04
   1 F= -.73444585E+02 E0= -.73444585E+02  d E =-.734446E+02  mag=    -0.0000
