       N       E                     dE             d eps       ncg     rms          ort
DAV:   1     0.487812519682E+03    0.48781E+03   -0.24498E+04 26754   0.197E+03
DAV:   2    -0.804296470901E+01   -0.49586E+03   -0.48637E+03 26754   0.534E+02
DAV:   3    -0.864602441496E+02   -0.78417E+02   -0.75886E+02 26754   0.172E+02
DAV:   4    -0.899257152527E+02   -0.34655E+01   -0.34423E+01 26754   0.414E+01
DAV:   5    -0.900358847893E+02   -0.11017E+00   -0.10999E+00 26754   0.715E+00
SDA:   6    -0.764833604200E+02    0.13553E+02   -0.10999E+00 26754   0.237E+01 0.000E+00
CGA:   7    -0.768866752548E+02   -0.40331E+00   -0.40442E+00 26754   0.208E+00 0.283E-01
CGA:   8    -0.769413899299E+02   -0.54715E-01   -0.54460E-01 26754   0.432E-01 0.362E-02
CGA:   9    -0.769539964126E+02   -0.12606E-01   -0.13079E-01 26754   0.130E-01-0.493E-02
CGA:  10    -0.769567265328E+02   -0.27301E-02   -0.27208E-02 26754   0.290E-02 0.290E-03
CGA:  11    -0.769577663094E+02   -0.10398E-02   -0.10457E-02 26754   0.149E-02-0.413E-04
CGA:  12    -0.769583295433E+02   -0.56323E-03   -0.62698E-03 26754   0.738E-03-0.299E-03
CGA:  13    -0.769584950893E+02   -0.16555E-03   -0.30303E-03 26754   0.654E-03-0.477E-03
CGA:  14    -0.769585860193E+02   -0.90930E-04   -0.10384E-03 26754   0.115E-03 0.158E-03
CGA:  15    -0.769586264651E+02   -0.40446E-04   -0.40400E-04 26754   0.420E-04 0.932E-06
CGA:  16    -0.769584859607E+02    0.14050E-03   -0.76318E-04 26754   0.738E-03-0.161E-03
CGA:  17    -0.769585726857E+02   -0.86725E-04   -0.12279E-03 26754   0.130E-03 0.133E-03
CGA:  18    -0.769586099958E+02   -0.37310E-04   -0.40608E-04 26754   0.314E-04 0.211E-04
CGA:  19    -0.769586148107E+02   -0.48149E-05   -0.29647E-04 26754   0.152E-03-0.622E-04
CGA:  20    -0.769586213563E+02   -0.65456E-05   -0.19707E-04 26754   0.255E-04 0.431E-04
   1 F= -.76958621E+02 E0= -.76958621E+02  d E =-.769586E+02  mag=     0.0000
