       N       E                     dE             d eps       ncg     rms          ort
DAV:   1     0.495177609717E+03    0.49518E+03   -0.24470E+04 26754   0.197E+03
DAV:   2    -0.940625198506E+00   -0.49612E+03   -0.48668E+03 26754   0.535E+02
DAV:   3    -0.792823185266E+02   -0.78342E+02   -0.75825E+02 26754   0.172E+02
DAV:   4    -0.827440964577E+02   -0.34618E+01   -0.34421E+01 26754   0.415E+01
DAV:   5    -0.828544144686E+02   -0.11032E+00   -0.11015E+00 26754   0.720E+00
SDA:   6    -0.690480679342E+02    0.13806E+02   -0.11015E+00 26754   0.249E+01 0.000E+00
CGA:   7    -0.694891063180E+02   -0.44104E+00   -0.44137E+00 26754   0.238E+00 0.631E-02
CGA:   8    -0.695522903465E+02   -0.63184E-01   -0.63161E-01 26754   0.497E-01 0.299E-03
CGA:   9    -0.695657206241E+02   -0.13430E-01   -0.13446E-01 26754   0.114E-01-0.248E-03
CGA:  10    -0.695687797251E+02   -0.30591E-02   -0.30716E-02 26754   0.293E-02-0.189E-03
CGA:  11    -0.695698861553E+02   -0.11064E-02   -0.11163E-02 26754   0.140E-02-0.555E-04
CGA:  12    -0.695703924216E+02   -0.50627E-03   -0.50903E-03 26754   0.462E-03-0.180E-04
CGA:  13    -0.695705349425E+02   -0.14252E-03   -0.14481E-03 26754   0.151E-03-0.249E-04
CGA:  14    -0.695705682762E+02   -0.33334E-04   -0.33334E-04 26754   0.444E-04-0.193E-07
CGA:  15    -0.695705820412E+02   -0.13765E-04   -0.13898E-04 26754   0.108E-04-0.160E-05
CGA:  16    -0.695705857964E+02   -0.37552E-05   -0.36077E-05 26754   0.303E-05 0.130E-05
   1 F= -.69570586E+02 E0= -.69570586E+02  d E =-.695706E+02  mag=    -0.0000
