       N       E                     dE             d eps       ncg     rms          ort
DAV:   1     0.110437802041E+04    0.11044E+04   -0.50325E+04 18250   0.207E+03
DAV:   2     0.925864072178E+01   -0.10951E+04   -0.10570E+04 18250   0.593E+02
DAV:   3    -0.135384496104E+03   -0.14464E+03   -0.14017E+03 18250   0.192E+02
DAV:   4    -0.141549330883E+03   -0.61648E+01   -0.61430E+01 18250   0.422E+01
DAV:   5    -0.141739702733E+03   -0.19037E+00   -0.18825E+00 18250   0.663E+00
SDA:   6    -0.117040509814E+03    0.24699E+02   -0.18825E+00 18250   0.550E+01 0.000E+00
CGA:   7    -0.117925368917E+03   -0.88486E+00   -0.88600E+00 18250   0.771E+00 0.640E-02
CGA:   8    -0.118073208381E+03   -0.14784E+00   -0.14785E+00 18250   0.204E+00 0.184E-02
CGA:   9    -0.118120701303E+03   -0.47493E-01   -0.47474E-01 18250   0.427E-01 0.565E-03
CGA:  10    -0.118133381329E+03   -0.12680E-01   -0.12647E-01 18250   0.137E-01 0.349E-03
CGA:  11    -0.118137092663E+03   -0.37113E-02   -0.37432E-02 18250   0.689E-02-0.486E-03
CGA:  12    -0.118139603297E+03   -0.25106E-02   -0.26805E-02 18250   0.389E-02-0.873E-03
CGA:  13    -0.118140653059E+03   -0.10498E-02   -0.10591E-02 18250   0.142E-02-0.997E-04
CGA:  14    -0.118141099495E+03   -0.44644E-03   -0.46237E-03 18250   0.596E-03-0.143E-03
CGA:  15    -0.118141321908E+03   -0.22241E-03   -0.25010E-03 18250   0.373E-03-0.116E-03
CGA:  16    -0.118141343837E+03   -0.21929E-04   -0.26894E-03 18250   0.111E-02-0.377E-03
CGA:  17    -0.118141588902E+03   -0.24507E-03   -0.24278E-03 18250   0.288E-03-0.426E-04
CGA:  18    -0.118141656892E+03   -0.67990E-04   -0.68630E-04 18250   0.663E-04 0.289E-04
CGA:  19    -0.118141688534E+03   -0.31642E-04   -0.30229E-04 18250   0.282E-04 0.970E-05
CGA:  20    -0.118141703639E+03   -0.15104E-04   -0.18157E-04 18250   0.534E-04-0.106E-04
CGA:  21    -0.118141709183E+03   -0.55444E-05   -0.58594E-05 18250   0.324E-04 0.281E-05
   1 F= -.11814171E+03 E0= -.11814171E+03  d E =-.118142E+03  mag=     0.0000
       N       E                     dE             d eps       ncg     rms          ort
SDA:   1    -0.118139794263E+03    0.19094E-02    0.00000E+00 18250   0.123E-01 0.000E+00
CGA:   2    -0.118141376376E+03   -0.15821E-02   -0.15164E-02 18250   0.105E-02-0.450E-03
CGA:   3    -0.118141614050E+03   -0.23767E-03   -0.24255E-03 18250   0.363E-03 0.159E-03
CGA:   4    -0.118141693479E+03   -0.79429E-04   -0.84835E-04 18250   0.834E-04 0.832E-04
CGA:   5    -0.118141714518E+03   -0.21039E-04   -0.22420E-04 18250   0.236E-04 0.299E-04
CGA:   6    -0.118141716235E+03   -0.17175E-05   -0.42848E-05 18250   0.115E-04 0.199E-04
   2 F= -.11814172E+03 E0= -.11814172E+03  d E =-.705208E-05  mag=     0.0000
       N       E                     dE             d eps       ncg     rms          ort
SDA:   1    -0.118141139888E+03    0.57463E-03    0.00000E+00 18250   0.417E-02 0.000E+00
CGA:   2    -0.118141562449E+03   -0.42256E-03   -0.46139E-03 18250   0.288E-03 0.273E-03
CGA:   3    -0.118141655786E+03   -0.93336E-04   -0.96137E-04 18250   0.194E-03-0.392E-04
CGA:   4    -0.118141698786E+03   -0.43001E-04   -0.59591E-04 18250   0.172E-03-0.152E-03
CGA:   5    -0.118141719538E+03   -0.20752E-04   -0.24268E-04 18250   0.276E-04 0.319E-04
CGA:   6    -0.118141726780E+03   -0.72418E-05   -0.73823E-05 18250   0.809E-05 0.691E-05
   3 F= -.11814173E+03 E0= -.11814173E+03  d E =-.175966E-04  mag=     0.0000
