       N       E                     dE             d eps       ncg     rms          ort
DAV:   1     0.108355973495E+04    0.10836E+04   -0.50369E+04 18250   0.208E+03
DAV:   2    -0.112806605482E+02   -0.10948E+04   -0.10574E+04 18250   0.594E+02
DAV:   3    -0.150574085730E+03   -0.13929E+03   -0.13454E+03 18250   0.192E+02
DAV:   4    -0.157079279160E+03   -0.65052E+01   -0.64485E+01 18250   0.413E+01
DAV:   5    -0.157282216269E+03   -0.20294E+00   -0.20273E+00 18250   0.691E+00
SDA:   6    -0.134823535847E+03    0.22459E+02   -0.20273E+00 18250   0.756E+01 0.000E+00
CGA:   7    -0.136220603916E+03   -0.13971E+01   -0.13984E+01 18250   0.130E+01 0.639E-01
CGA:   8    -0.136596412296E+03   -0.37581E+00   -0.37315E+00 18250   0.681E+00 0.309E-01
CGA:   9    -0.136761203282E+03   -0.16479E+00   -0.16422E+00 18250   0.268E+00 0.165E-01
CGA:  10    -0.136856633834E+03   -0.95431E-01   -0.95043E-01 18250   0.876E-01 0.202E-02
CGA:  11    -0.136887421096E+03   -0.30787E-01   -0.30800E-01 18250   0.382E-01-0.313E-03
CGA:  12    -0.136897904443E+03   -0.10483E-01   -0.10417E-01 18250   0.135E-01 0.118E-02
CGA:  13    -0.136902411945E+03   -0.45075E-02   -0.46756E-02 18250   0.714E-02-0.150E-02
CGA:  14    -0.136904142489E+03   -0.17305E-02   -0.16949E-02 18250   0.245E-02 0.909E-03
CGA:  15    -0.136905085846E+03   -0.94336E-03   -0.91659E-03 18250   0.127E-02 0.262E-03
CGA:  16    -0.136905664237E+03   -0.57839E-03   -0.81790E-03 18250   0.287E-02-0.693E-03
CGA:  17    -0.136905956136E+03   -0.29190E-03   -0.38210E-03 18250   0.559E-03 0.758E-03
CGA:  18    -0.136906026768E+03   -0.70632E-04   -0.10558E-03 18250   0.354E-03 0.362E-03
CGA:  19    -0.136906163932E+03   -0.13716E-03   -0.14046E-03 18250   0.573E-03-0.216E-04
CGA:  20    -0.136906197459E+03   -0.33527E-04   -0.75099E-04 18250   0.337E-03 0.381E-03
CGA:  21    -0.136906201802E+03   -0.43433E-05   -0.31614E-04 18250   0.148E-03 0.182E-03
CGA:  22    -0.136906207890E+03   -0.60877E-05   -0.19149E-04 18250   0.129E-03 0.123E-03
CGA:  23    -0.136906233111E+03   -0.25222E-04   -0.27335E-04 18250   0.121E-03 0.118E-03
CGA:  24    -0.136906244980E+03   -0.11869E-04   -0.19651E-04 18250   0.121E-03 0.115E-03
CGA:  25    -0.136906257982E+03   -0.13002E-04   -0.20006E-04 18250   0.120E-03 0.115E-03
CGA:  26    -0.136906266167E+03   -0.81850E-05   -0.17296E-04 18250   0.120E-03 0.115E-03
CGA:  27    -0.136906274553E+03   -0.83858E-05   -0.17173E-04 18250   0.120E-03 0.115E-03
CGA:  28    -0.136906279913E+03   -0.53598E-05   -0.15347E-04 18250   0.120E-03 0.114E-03
CGA:  29    -0.136906285043E+03   -0.51302E-05   -0.14942E-04 18250   0.119E-03 0.114E-03
CGA:  30    -0.136906287884E+03   -0.28410E-05   -0.13440E-04 18250   0.118E-03 0.113E-03
CGA:  31    -0.136906290476E+03   -0.25918E-05   -0.12972E-04 18250   0.117E-03 0.112E-03
CGA:  32    -0.136906291166E+03   -0.68968E-06   -0.11623E-04 18250   0.116E-03 0.111E-03
CGA:  33    -0.136906291859E+03   -0.69338E-06   -0.11241E-04 18250   0.114E-03 0.110E-03
   1 F= -.13690629E+03 E0= -.13690629E+03  d E =-.136906E+03  mag=    -0.0000
