       N       E                     dE             d eps       ncg     rms          ort
DAV:   1     0.500301053483E+03    0.50030E+03   -0.24443E+04 26754   0.196E+03
DAV:   2     0.517064208801E+01   -0.49513E+03   -0.48566E+03 26754   0.536E+02
DAV:   3    -0.756522794041E+02   -0.80823E+02   -0.78264E+02 26754   0.171E+02
DAV:   4    -0.791473666044E+02   -0.34951E+01   -0.34695E+01 26754   0.418E+01
DAV:   5    -0.792620817784E+02   -0.11472E+00   -0.11455E+00 26754   0.737E+00
SDA:   6    -0.655543576475E+02    0.13708E+02   -0.11455E+00 26754   0.246E+01 0.000E+00
CGA:   7    -0.659862765790E+02   -0.43192E+00   -0.43224E+00 26754   0.230E+00 0.529E-02
CGA:   8    -0.660468694736E+02   -0.60593E-01   -0.60584E-01 26754   0.476E-01 0.773E-04
CGA:   9    -0.660593940864E+02   -0.12525E-01   -0.12538E-01 26754   0.107E-01-0.228E-03
CGA:  10    -0.660621152877E+02   -0.27212E-02   -0.27298E-02 26754   0.254E-02-0.166E-03
CGA:  11    -0.660629678822E+02   -0.85259E-03   -0.86577E-03 26754   0.126E-02-0.951E-04
CGA:  12    -0.660633703882E+02   -0.40251E-03   -0.40249E-03 26754   0.522E-03 0.256E-07
CGA:  13    -0.660635354120E+02   -0.16502E-03   -0.16968E-03 26754   0.190E-03-0.446E-04
CGA:  14    -0.660635856066E+02   -0.50195E-04   -0.50587E-04 26754   0.464E-04-0.596E-05
CGA:  15    -0.660636010244E+02   -0.15418E-04   -0.16053E-04 26754   0.125E-04-0.496E-05
CGA:  16    -0.660636037095E+02   -0.26851E-05   -0.26757E-05 26754   0.339E-05 0.252E-05
   1 F= -.66063604E+02 E0= -.66063604E+02  d E =-.660636E+02  mag=     0.0000
