       N       E                     dE             d eps       ncg     rms          ort
DAV:   1     0.524699397203E+03    0.52470E+03   -0.29316E+04 30870   0.194E+03
DAV:   2    -0.356557333131E+02   -0.56036E+03   -0.53096E+03 30870   0.526E+02
DAV:   3    -0.873815408838E+02   -0.51726E+02   -0.49281E+02 30870   0.155E+02
DAV:   4    -0.889709328118E+02   -0.15894E+01   -0.15353E+01 30870   0.261E+01
DAV:   5    -0.890401934749E+02   -0.69261E-01   -0.68458E-01 30870   0.437E+00
SDA:   6    -0.746089701259E+02    0.14431E+02   -0.68458E-01 30870   0.323E+01 0.000E+00
CGA:   7    -0.752014357058E+02   -0.59247E+00   -0.59341E+00 30870   0.494E+00 0.292E-01
CGA:   8    -0.753157299249E+02   -0.11429E+00   -0.11416E+00 30870   0.293E+00-0.470E-03
CGA:   9    -0.753652026534E+02   -0.49473E-01   -0.49550E-01 30870   0.127E+00-0.226E-02
CGA:  10    -0.753955848981E+02   -0.30382E-01   -0.30455E-01 30870   0.899E-01-0.195E-02
CGA:  11    -0.754203335741E+02   -0.24749E-01   -0.24837E-01 30870   0.477E-01-0.122E-02
CGA:  12    -0.754359967867E+02   -0.15663E-01   -0.15629E-01 30870   0.312E-01 0.355E-03
CGA:  13    -0.754415978130E+02   -0.56010E-02   -0.56293E-02 30870   0.170E-01 0.719E-03
CGA:  14    -0.754453588282E+02   -0.37610E-02   -0.37566E-02 30870   0.515E-02 0.668E-03
CGA:  15    -0.754473564160E+02   -0.19976E-02   -0.18932E-02 30870   0.261E-02 0.713E-03
CGA:  16    -0.754481391807E+02   -0.78276E-03   -0.77074E-03 30870   0.259E-02 0.287E-03
CGA:  17    -0.754487093352E+02   -0.57015E-03   -0.57423E-03 30870   0.952E-03 0.202E-03
CGA:  18    -0.754490589562E+02   -0.34962E-03   -0.33469E-03 30870   0.479E-03 0.138E-03
CGA:  19    -0.754491999533E+02   -0.14100E-03   -0.13805E-03 30870   0.420E-03 0.106E-03
CGA:  20    -0.754493496231E+02   -0.14967E-03   -0.14550E-03 30870   0.392E-03 0.713E-04
CGA:  21    -0.754495107306E+02   -0.16111E-03   -0.16156E-03 30870   0.475E-03-0.253E-05
CGA:  22    -0.754496476229E+02   -0.13689E-03   -0.13740E-03 30870   0.336E-03-0.750E-05
CGA:  23    -0.754497502126E+02   -0.10259E-03   -0.11064E-03 30870   0.380E-03-0.814E-04
CGA:  24    -0.754498160575E+02   -0.65845E-04   -0.63005E-04 30870   0.210E-03-0.121E-03
CGA:  25    -0.754498372355E+02   -0.21178E-04   -0.82551E-04 30870   0.475E-03-0.180E-03
CGA:  26    -0.754498859479E+02   -0.48712E-04   -0.55394E-04 30870   0.147E-03 0.472E-04
CGA:  27    -0.754499165179E+02   -0.30570E-04   -0.33044E-04 30870   0.820E-04 0.532E-04
CGA:  28    -0.754499474104E+02   -0.30893E-04   -0.30590E-04 30870   0.813E-04 0.117E-04
CGA:  29    -0.754499652827E+02   -0.17872E-04   -0.18428E-04 30870   0.756E-04 0.106E-04
CGA:  30    -0.754499852023E+02   -0.19920E-04   -0.20124E-04 30870   0.410E-04 0.176E-04
CGA:  31    -0.754499999028E+02   -0.14701E-04   -0.16560E-04 30870   0.107E-03-0.230E-04
CGA:  32    -0.754500106886E+02   -0.10786E-04   -0.10052E-04 30870   0.130E-04-0.480E-05
CGA:  33    -0.754500175172E+02   -0.68286E-05    0.11601E-04 30870   0.577E-05 0.636E-05
   1 F= -.75450018E+02 E0= -.75449430E+02  d E =-.754500E+02  mag=     4.0000
