       N       E                     dE             d eps       ncg     rms          ort
DAV:   1     0.532779149010E+03    0.53278E+03   -0.29336E+04 30870   0.194E+03
DAV:   2    -0.277135725502E+02   -0.56049E+03   -0.53119E+03 30870   0.525E+02
DAV:   3    -0.795340417635E+02   -0.51820E+02   -0.49326E+02 30870   0.156E+02
DAV:   4    -0.811326772690E+02   -0.15986E+01   -0.15505E+01 30870   0.264E+01
DAV:   5    -0.812002589657E+02   -0.67582E-01   -0.66984E-01 30870   0.441E+00
SDA:   6    -0.664312684367E+02    0.14769E+02   -0.66984E-01 30870   0.309E+01 0.000E+00
CGA:   7    -0.669779421304E+02   -0.54667E+00   -0.54713E+00 30870   0.457E+00 0.110E-01
CGA:   8    -0.670677298791E+02   -0.89788E-01   -0.89795E-01 30870   0.185E+00 0.212E-02
CGA:   9    -0.671023357919E+02   -0.34606E-01   -0.34637E-01 30870   0.769E-01 0.143E-02
CGA:  10    -0.671165224883E+02   -0.14187E-01   -0.14194E-01 30870   0.475E-01 0.233E-03
CGA:  11    -0.671302809040E+02   -0.13758E-01   -0.13695E-01 30870   0.229E-01 0.501E-03
CGA:  12    -0.671405129541E+02   -0.10232E-01   -0.10174E-01 30870   0.166E-01 0.238E-03
CGA:  13    -0.671440811267E+02   -0.35682E-02   -0.35684E-02 30870   0.124E-01 0.252E-03
CGA:  14    -0.671462241308E+02   -0.21430E-02   -0.21522E-02 30870   0.311E-02 0.203E-03
CGA:  15    -0.671473449545E+02   -0.11208E-02   -0.11052E-02 30870   0.170E-02 0.111E-03
CGA:  16    -0.671478093156E+02   -0.46436E-03   -0.46412E-03 30870   0.159E-02 0.492E-05
CGA:  17    -0.671481731147E+02   -0.36380E-03   -0.36398E-03 30870   0.101E-02-0.235E-04
CGA:  18    -0.671483797634E+02   -0.20665E-03   -0.20661E-03 30870   0.446E-03-0.269E-05
CGA:  19    -0.671485118772E+02   -0.13211E-03   -0.12807E-03 30870   0.171E-03 0.601E-04
CGA:  20    -0.671485688215E+02   -0.56944E-04   -0.53443E-04 30870   0.146E-03 0.669E-04
CGA:  21    -0.671486164895E+02   -0.47668E-04   -0.47304E-04 30870   0.119E-03 0.563E-04
CGA:  22    -0.671486727475E+02   -0.56258E-04   -0.52165E-04 30870   0.127E-03 0.451E-04
CGA:  23    -0.671487330497E+02   -0.60302E-04   -0.57603E-04 30870   0.134E-03 0.275E-04
CGA:  24    -0.671487807142E+02   -0.47664E-04   -0.46938E-04 30870   0.125E-03 0.140E-04
CGA:  25    -0.671488152217E+02   -0.34508E-04   -0.34425E-04 30870   0.108E-03 0.843E-05
CGA:  26    -0.671488537876E+02   -0.38566E-04   -0.38582E-04 30870   0.917E-04-0.391E-06
CGA:  27    -0.671488865365E+02   -0.32749E-04   -0.37285E-04 30870   0.150E-03-0.279E-04
CGA:  28    -0.671489037481E+02   -0.17212E-04   -0.15115E-04 30870   0.724E-04-0.201E-04
CGA:  29    -0.671489227781E+02   -0.19030E-04   -0.20934E-04 30870   0.105E-03-0.219E-04
CGA:  30    -0.671489308920E+02   -0.81139E-05   -0.69561E-05 30870   0.456E-04-0.732E-05
   1 F= -.67148931E+02 E0= -.67148357E+02  d E =-.671489E+02  mag=     4.0000
       N       E                     dE             d eps       ncg     rms          ort
SDA:   1    -0.671478595660E+02    0.10632E-02    0.00000E+00 30870   0.616E-02 0.000E+00
CGA:   2    -0.671484821022E+02   -0.62254E-03   -0.62026E-03 30870   0.154E-02-0.175E-04
CGA:   3    -0.671488434322E+02   -0.36133E-03   -0.36144E-03 30870   0.392E-03-0.291E-04
CGA:   4    -0.671489337780E+02   -0.90346E-04   -0.90307E-04 30870   0.714E-04 0.153E-04
CGA:   5    -0.671489513997E+02   -0.17622E-04   -0.17631E-04 30870   0.226E-04-0.182E-05
CGA:   6    -0.671489583408E+02   -0.69411E-05   -0.94323E-05 30870   0.526E-04-0.128E-04
   2 F= -.67148958E+02 E0= -.67148385E+02  d E =-.274487E-04  mag=     4.0000
