       N       E                     dE             d eps       ncg     rms          rms(c)
DAV:   1     0.117932049352E+04    0.11793E+04   -0.51061E+04856888   0.173E+03
DAV:   2    -0.316542310303E+02   -0.12110E+04   -0.11548E+04887380   0.541E+02
DAV:   3    -0.172130661725E+03   -0.14048E+03   -0.12913E+03******   0.183E+02
DAV:   4    -0.179800717526E+03   -0.76701E+01   -0.72759E+01******   0.430E+01
DAV:   5    -0.180064433688E+03   -0.26372E+00   -0.25939E+00993268   0.798E+00    0.763E+00
DAV:   6    -0.151545168912E+03    0.28519E+02   -0.85259E+00905008   0.163E+01    0.388E+00
DAV:   7    -0.150989800185E+03    0.55537E+00   -0.53756E-01******   0.515E+00    0.302E+00
DAV:   8    -0.150999892134E+03   -0.10092E-01   -0.37193E-02******   0.156E+00    0.272E+00
DAV:   9    -0.151002356566E+03   -0.24644E-02   -0.52038E-03******   0.873E-01    0.264E+00
DAV:  10    -0.150983105856E+03    0.19251E-01   -0.53641E-02******   0.140E+00    0.148E+00
DAV:  11    -0.150979635057E+03    0.34708E-02   -0.10197E-02944344   0.731E-01    0.910E-01
DAV:  12    -0.150978113550E+03    0.15215E-02   -0.35043E-03******   0.504E-01    0.719E-01
DAV:  13    -0.150976642913E+03    0.14706E-02   -0.53656E-03******   0.567E-01    0.380E-01
DAV:  14    -0.150976587791E+03    0.55122E-04   -0.14983E-03******   0.348E-01    0.230E-01
DAV:  15    -0.150976683436E+03   -0.95645E-04   -0.29929E-04******   0.168E-01    0.140E-01
DAV:  16    -0.150976757450E+03   -0.74014E-04   -0.30588E-04******   0.119E-01    0.808E-02
DAV:  17    -0.150976788431E+03   -0.30981E-04   -0.65741E-05******   0.535E-02    0.549E-02
DAV:  18    -0.150976892442E+03   -0.10401E-03   -0.38103E-05******   0.408E-02    0.239E-02
DAV:  19    -0.150976840551E+03    0.51891E-04   -0.37419E-05******   0.330E-02    0.129E-02
DAV:  20    -0.150976861512E+03   -0.20961E-04   -0.90809E-06874792   0.173E-02    0.416E-03
DAV:  21    -0.150976858620E+03    0.28920E-05   -0.42278E-07490816   0.446E-03    0.291E-03
DAV:  22    -0.150976858782E+03   -0.16145E-06   -0.14164E-07474560   0.369E-03
   1 F= -.15097686E+03 E0= -.15097366E+03  d E =-.639683E-02  mag=     4.0000
