unknown system                          
           1
     5.678051   -0.000007    0.015319
    -0.000003    4.540644   -0.000037
    -2.851977   -0.000034    4.526603
   V    O 
     4     8
Direct configuration=     1
   0.24611545  0.99296831  0.01406650
   0.75307795  0.00696699  0.98623369
   0.75308687  0.49304454  0.48623484
   0.24612823  0.50702179  0.51405326
   0.10234954  0.20457173  0.20589287
   0.89822989  0.79554762  0.79405080
   0.89823755  0.70443507  0.29405342
   0.10232874  0.29544645  0.70585334
   0.40037070  0.69683818  0.30355145
   0.59985753  0.30329048  0.69625280
   0.59986882  0.19672552  0.19624971
   0.40034875  0.80314334  0.80350733
